                         Program Version 3.0.3 - RELEASE   -
|  1> %scf MaxIter 1000 end
|  2> ! RKS B3LYP SVP Grid4
|  3> ! opt
|  4> !RIJCOSX
|  5>
|  6> * xyz 0 1
|  7>
|  8> C         -2.88674        1.57734       -0.00649
|  9> C         -1.78652        0.82512       -0.13188
| 10> H         -2.82926        2.63086        0.25471
| 11> H         -3.87158        1.15069       -0.16348
| 12> C         -0.45444        1.40663        0.08191
| 13> H         -1.83949       -0.22478       -0.39161
| 14> O          0.48977        0.46833       -0.08941
| 15> O         -0.18480        2.55564        0.37237
| 16> H          1.32684        0.95053        0.07387
| 17> *
| 18>
| 19>                          ****END OF INPUT****
 Total Charge           Charge          ....    0
 Multiplicity           Mult            ....    1
 Number of Electrons    NEL             ....   38
FINAL SINGLE POINT ENERGY      -266.828215991270
FINAL SINGLE POINT ENERGY      -266.829122683107
FINAL SINGLE POINT ENERGY      -266.829220760903
FINAL SINGLE POINT ENERGY      -266.829204366089
FINAL SINGLE POINT ENERGY      -266.829246062815
                    ***********************HURRAY********************

CARTESIAN COORDINATES (ANGSTROEM)
---------------------------------
  C     -2.904555    1.577434   -0.012580
  C     -1.800038    0.832717   -0.118914
  H     -2.834076    2.639358    0.241694
  H     -3.896759    1.147450   -0.174817
  C     -0.445864    1.410417    0.094022
  H     -1.840410   -0.228808   -0.377649
  O      0.513959    0.480193   -0.096830
  O     -0.193440    2.553274    0.395602
  H      1.364962    0.928325    0.049461

 Multiplicity           Mult            ....    1
 Number of Electrons    NEL             ....   38
 Basis Dimension        Dim             ....   90

ORBITAL ENERGIES
----------------

  NO   OCC          E(Eh)            E(eV)
   0   2.0000     -19.179303      -521.8954
   1   2.0000     -19.120096      -520.2842
   2   2.0000     -10.315842      -280.7083
   3   2.0000     -10.211703      -277.8746
   4   2.0000     -10.206704      -277.7385
   5   2.0000      -1.094476       -29.7822
   6   2.0000      -1.001235       -27.2450
   7   2.0000      -0.787913       -21.4402
   8   2.0000      -0.666490       -18.1361
   9   2.0000      -0.562408       -15.3039
  10   2.0000      -0.513039       -13.9605
  11   2.0000      -0.477426       -12.9914
  12   2.0000      -0.450549       -12.2601
  13   2.0000      -0.439744       -11.9660
  14   2.0000      -0.411152       -11.1880
  15   2.0000      -0.379062       -10.3148
  16   2.0000      -0.324291        -8.8244
  17   2.0000      -0.290568        -7.9068
  18   2.0000      -0.280266        -7.6264
  19   0.0000      -0.053130        -1.4458
  20   0.0000       0.060382         1.6431
  21   0.0000       0.079990         2.1766
  22   0.0000       0.081443         2.2162
  23   0.0000       0.108012         2.9392

MULLIKEN ATOMIC CHARGES
-----------------------
   0 C :    0.034601
   1 C :   -0.075649
   2 H :    0.049931
   3 H :    0.037155
   4 C :    0.153788
   5 H :    0.017682
   6 O :   -0.181114
   7 O :   -0.214938
   8 H :    0.178544
Sum of atomic charges:   -0.0000000

LOEWDIN ATOMIC CHARGES
----------------------
   0 C :    0.023987
   1 C :   -0.070437
   2 H :    0.037478
   3 H :    0.033329
   4 C :    0.075012
   5 H :    0.034826
   6 O :   -0.043461
   7 O :   -0.185755
   8 H :    0.095021

  Mayer bond orders larger than 0.1
B(  0-C ,  1-C ) :   1.9587 B(  0-C ,  2-H ) :   0.9446 B(  0-C ,  3-H ) :   0.9471
B(  1-C ,  4-C ) :   0.9775 B(  1-C ,  5-H ) :   0.9546 B(  4-C ,  6-O ) :   1.2213
B(  4-C ,  7-O ) :   2.1101 B(  6-O ,  8-H ) :   0.9481

FINAL SINGLE POINT ENERGY      -266.829245950860

DIPOLE MOMENT
-------------
                                X             Y             Z
Electronic contribution:      3.19350       0.44140       0.30673
Nuclear contribution   :     -3.39703      -0.93930      -0.45417
                        -----------------------------------------
Total Dipole Moment    :     -0.20353      -0.49790      -0.14745
                        -----------------------------------------
Magnitude (a.u.)       :      0.55774
Magnitude (Debye)      :      1.41766

                             ****ORCA TERMINATED NORMALLY****
TOTAL RUN TIME: 0 days 0 hours 3 minutes 16 seconds 327 msec
